7
Properties=species:S:1:pos:R:3:forces:R:3:energies:R:1 energy=1.4353275483032926 dipole="-0.5519231805596828 -0.3224930240237453 -0.05433872128482733" free_energy=1.4353275483032926 pbc="F F F"
C       -2.09323155       3.22999256       0.15814869       0.07126538      -0.01292341      -0.00933763      -0.52244336
C       -1.04837265       2.94774204      -0.00648712      -0.06976239      -0.00186482       0.00478228      -0.28641894
O       -0.05430573       3.51103341       0.08642338      -0.08330025      -0.02076029       0.00014526       0.48584285
H       -2.93452178       3.20834186      -0.71775064       0.04244346       0.00445879       0.05606909       0.43791309
H       -2.80299364       2.69897342       0.98864121       0.03426092       0.03607668      -0.04985084       0.43791485
H       -0.78327169       1.78446013      -0.37568634      -0.00675625       0.04614342       0.01435604       0.44494761
H       -2.35880193       4.36565659       0.51761083       0.01184914      -0.05113037      -0.01616420       0.43757145
